! TOUCHSTONE file generated by CST MICROWAVE STUDIO
! Date and time: Sat Feb 15 04:13:26 2025
! Project name: Patch antenna.cst
! Header version: 2024
! Port assignment regex: !\s*Touchstone port\s*([0-9]+)\s*=\s*(CST MWS port|CST DES external port|CST DES block port)\s*(.+)\s* \(\"(.*)\"\)(\s*mode\s*([0-9]+))?.*
! Touchstone port assignment:
! Touchstone port 1 = CST MWS port 1 ("Source")
! Touchstone port 2 = CST MWS port 2 ("Serial")
! Touchstone port 3 = CST MWS port 3 ("Parallel")
# GHz S MA R 50
0                    2.01511e-06              -0                1              -0     9.835256e-07              -0
                       0.9999999              -0     1.859194e-06             180     2.953556e-06              -0
                    9.874398e-07              -0     2.958348e-06              -0        0.9999999             180
0.005                0.001594913        89.66288        0.9999947      -0.1348604      0.002833954        89.67023
                       0.9999947      -0.1348603      0.001598585        89.77681      0.002837678       -90.26528
                     0.002833957        89.67023      0.002837684       -90.26517        0.9999888        179.6186
0.01                 0.003192323        89.40149        0.9999788      -0.2697173      0.005669017        89.36151
                       0.9999788      -0.2697173      0.003194708        89.48439      0.005671436       -90.59251
                     0.005669032        89.36156      0.005671449       -90.59247        0.9999595        179.2375
0.015                0.004791267        89.07975        0.9999524      -0.4045653      0.008504668        89.03639
                       0.9999524      -0.4045655      0.004789154        89.24785      0.008502509       -90.86976
                     0.008504697        89.03644       0.00850253       -90.86972        0.9999192        178.8567
0.02                 0.006388523        88.74162        0.9999153      -0.5393965       0.01133928        88.70667
                       0.9999153      -0.5393966      0.006384798        89.02621       0.01133545       -91.13372
                      0.01133932        88.70665       0.01133548       -91.13369        0.9998679        178.4757
0.025                0.007982846        88.41796        0.9998676      -0.6742026       0.01417213        88.38068
                       0.9998676      -0.6742028      0.007982604        88.79072       0.01417177       -91.41004
                      0.01417218        88.38066        0.0141718       -91.41002        0.9997991        178.0943
0.03                 0.009576546         88.1139        0.9998094      -0.8089788        0.0170042        88.06007
                       0.9998094      -0.8089789      0.009580227        88.53718       0.01700774       -91.70248
                      0.01700425        88.06005       0.01700778       -91.70248        0.9997079         177.713
0.035                 0.01117228        87.81301        0.9997407      -0.9437229        0.0198367        87.74056
                       0.9997407       -0.943723        0.0111751        88.28135       0.01983926         -91.997
                      0.01983676        87.74059       0.01983931       -91.99699        0.9995982         177.332
0.04                  0.01276939        87.50018        0.9996616       -1.078432       0.02266933          87.418
                       0.9996616       -1.078432       0.01276782        88.03693       0.02266729       -92.28127
                      0.02266941        87.41802       0.02266735       -92.28126        0.9994773        176.9513
0.045                 0.01436467        87.17765        0.9995716       -1.213099       0.02550049        87.09269
                       0.9995716       -1.213099       0.01436126         87.8013       0.02549637       -92.55769
                      0.02550057        87.09271       0.02549643       -92.55768        0.9993458        176.5705
0.05                   0.0159566        86.85838        0.9994712       -1.347713       0.02832925        86.76808
                       0.9994712       -1.347713       0.01595655         87.5622       0.02832828       -92.83722
                      0.02832934        86.76808       0.02832835        -92.8372        0.9991971        176.1894
0.055                 0.01754729        86.54897        0.9993603       -1.482267       0.03115645        86.44616
                       0.9993603       -1.482267       0.01755148        87.31403       0.03115948       -93.12486
                      0.03115655        86.44616       0.03115955       -93.12484        0.9990262        175.8082
0.06                  0.01913954        86.24307         0.999239        -1.61676       0.03398339        86.12548
                        0.999239       -1.616761       0.01914338        87.06327       0.03398573       -93.41479
                      0.03398351         86.1255       0.03398582       -93.41479        0.9988365        175.4275
0.065                 0.02073298        85.93122        0.9991073       -1.751193       0.03680999         85.8034
                       0.9991073       -1.751193       0.02073267        86.81854        0.0368077        -93.6993
                      0.03681013        85.80341        0.0368078        -93.6993        0.9986353         175.047
0.07                  0.02232447        85.61277        0.9989648       -1.885558        0.0396347        85.47947
                       0.9989648       -1.885559       0.02232219        86.57981       0.03962988       -93.97847
                      0.03963486        85.47947       0.03962999       -93.97847        0.9984238        174.6665
0.075                 0.02391223        85.29544        0.9988121       -2.019842       0.04245642        85.15567
                       0.9988121       -2.019843       0.02391325        86.33964       0.04245435       -94.25891
                      0.04245659        85.15564       0.04245447       -94.25891        0.9981958        174.2857
0.08                  0.02549813         84.9846        0.9986488       -2.154037        0.0452758        84.83364
                       0.9986488       -2.154038       0.02550377        86.09353       0.04527776       -94.54466
                      0.04527598        84.83362       0.04527788       -94.54466        0.9979457        173.9049
0.085                  0.0270851        84.67698        0.9984753       -2.288143       0.04809423        84.51275
                       0.9984753       -2.288144       0.02709099        85.84511       0.04809573       -94.83246
                      0.04809444        84.51275       0.04809587       -94.83246        0.9976765        173.5245
0.09                  0.02867306        84.36573        0.9982915       -2.422162       0.05091184        84.19116
                       0.9982915       -2.422163       0.02867515        85.60067       0.05090865       -95.11668
                      0.05091207        84.19115        0.0509088       -95.11668        0.9973958        173.1444
0.095                 0.03025896        84.04948        0.9980972       -2.556088       0.05372714         83.8682
                       0.9980972        -2.55609       0.03025906        85.36084       0.05372095       -95.39674
                       0.0537274        83.86817       0.05372112       -95.39677        0.9971052        172.7643
0.1                   0.03184078        83.73348        0.9978925       -2.689908       0.05653889        83.54515
                       0.9978925        -2.68991       0.03184419        85.12045       0.05653498       -95.67734
                      0.05653916        83.54509       0.05653517       -95.67735        0.9967984         172.384
0.105                 0.03342014        83.42226        0.9976775       -2.823609       0.05934755        83.22341
                       0.9976775       -2.823611       0.03342861        84.87568       0.05934761       -95.96182
                      0.05934784        83.22334       0.05934781       -95.96185        0.9964699        172.0036
0.11                  0.03500006        83.11399        0.9974524       -2.957192       0.06215456        82.90274
                       0.9974524       -2.957194       0.03500947        84.62889       0.06215436       -96.24811
                      0.06215487        82.90269       0.06215457       -96.24814        0.9961221        171.6237
0.115                 0.03658076        82.80339        0.9972172       -3.090662       0.06496024        82.58176
                       0.9972172       -3.090665       0.03658683        84.38497       0.06495528       -96.53178
                      0.06496058        82.58168       0.06495551       -96.53184        0.9957627        171.2441
0.12                  0.03815931        82.48878        0.9969717       -3.224016       0.06776325        82.25972
                       0.9969716       -3.224019       0.03816346        84.14488       0.06775478       -96.81204
                      0.06776361        82.25961       0.06775502       -96.81211        0.9953936        170.8646
0.125                 0.03973345        82.17393        0.9967158       -3.357237       0.07056216        81.93747
                       0.9967158        -3.35724         0.039741        83.90468       0.07055544       -97.09238
                      0.07056253        81.93734       0.07055569       -97.09246        0.9950091        170.4848
0.13                  0.04130456        81.86283        0.9964497       -3.490311       0.07335727        81.61624
                       0.9964497       -3.490314       0.04131765        83.66108       0.07335437       -97.37575
                      0.07335764        81.61611       0.07335464       -97.37584         0.994603        170.1051
0.135                 0.04287569         81.5545        0.9961738       -3.623239       0.07614999        81.29608
                       0.9961737       -3.623242       0.04289051        83.41568       0.07614699       -97.66073
                      0.07615038        81.29593       0.07614725       -97.66081        0.9941777        169.7257
0.14                  0.04444739        81.24464        0.9958879       -3.756028       0.07894091        80.97581
                       0.9958879       -3.756032       0.04445944        83.17248       0.07893305       -97.94369
                      0.07894132        80.97566       0.07893332        -97.9438        0.9937406        169.3468
0.145                 0.04601686        80.93144        0.9955921       -3.888678       0.08172878        80.65473
                        0.995592       -3.888682       0.04602717        82.93255       0.08171687       -98.22373
                       0.0817292        80.65454       0.08171716       -98.22384        0.9932943         168.968
0.15                  0.04758163        80.61777        0.9952859        -4.02117       0.08451206        80.33339
                       0.9952858       -4.021174       0.04759548        82.69284        0.0845013       -98.50355
                      0.08451249        80.33317       0.08450159       -98.50369        0.9928333        168.5889
0.155                 0.04914278        80.30711        0.9949697       -4.153487        0.0872908        80.01287
                       0.9949697       -4.153491       0.04916274        82.45039       0.08728369        -98.7858
                      0.08729124        80.01264         0.087284       -98.78594         0.992351        168.2098
0.16                  0.05070345        79.99906        0.9946439       -4.285629        0.0900665        79.69337
                       0.9946438       -4.285633         0.050726        82.20631       0.09005935       -99.06951
                      0.09006693        79.69315       0.09005965       -99.06966        0.9918494        167.8312
0.165                 0.05226446        79.69007        0.9943085        -4.41761       0.09283987        79.37398
                       0.9943084       -4.417613       0.05228493        81.96396       0.09282776       -99.35164
                      0.09284032        79.37373       0.09282806       -99.35178        0.9913358        167.4531
0.17                  0.05382316        79.37823         0.993963       -4.549427       0.09560985        79.05393
                        0.993963        -4.54943       0.05384217        81.72452       0.09559313       -99.63113
                       0.0956103        79.05366       0.09559344        -99.6313        0.9908136         167.075
0.175                  0.0553769        79.06576        0.9936077       -4.681062       0.09837477        78.73361
                       0.9936077       -4.681065       0.05539968         81.4855       0.09835855       -99.91024
                       0.0983752        78.73332       0.09835885       -99.91042        0.9902771        166.6968
0.18                   0.0569265        78.75578        0.9932425       -4.812495        0.1011345        78.41397
                       0.9932424       -4.812498       0.05695599        81.24426        0.1011216       -100.1913
                       0.1011349        78.41367        0.1011219       -100.1915        0.9897202        166.3185
0.185                 0.05847506        78.44828        0.9928678       -4.943727        0.1038905        78.09533
                       0.9928678        -4.94373       0.05850809        81.00152        0.1038776       -100.4737
                       0.1038909        78.09501        0.1038779       -100.4739        0.9891437        165.9407
0.19                  0.06002373        78.14025        0.9924839       -5.074771        0.1066436        77.77692
                       0.9924838       -5.074775       0.06005546        80.76018        0.1066256       -100.7549
                        0.106644         77.7766        0.1066259       -100.7551        0.9885553        165.5635
0.195                 0.06157004        77.82982        0.9920903       -5.205631         0.109393        77.45802
                       0.9920902       -5.205634       0.06160069        80.52146        0.1093699       -101.0336
                       0.1093934        77.45767        0.1093702       -101.0338        0.9879586        165.1863
0.2                   0.06311116        77.51864        0.9916868       -5.336286         0.112137        77.13883
                       0.9916867       -5.336289       0.06314588        80.28334        0.1121136       -101.3118
                       0.1121373        77.13847        0.1121139        -101.312        0.9873485         164.809
0.205                 0.06464763        77.20953        0.9912739       -5.466713        0.1148751        76.82021
                       0.9912738       -5.466714       0.06468971        80.04338        0.1148547       -101.5916
                       0.1148754        76.81986        0.1148549       -101.5919        0.9867183        164.4318
0.21                  0.06618253        76.90279        0.9908517       -5.596912        0.1176087        76.50255
                       0.9908516       -5.596913       0.06622915        79.80203        0.1175883       -101.8727
                        0.117609         76.5022        0.1175886       -101.8729        0.9860687        164.0549
0.215                 0.06771728        76.59587        0.9904206       -5.726899        0.1203391        76.18526
                       0.9904204       -5.726901       0.06776351        79.56182        0.1203134       -102.1527
                       0.1203393         76.1849        0.1203136       -102.1529        0.9854071        163.6786
0.22                  0.06924963        76.28688        0.9899799       -5.856681        0.1230653        75.86761
                       0.9899798       -5.856683       0.06929527        79.32404        0.1230339       -102.4305
                       0.1230656        75.86724        0.1230341       -102.4307        0.9847376        163.3025
0.225                 0.07077659        75.97707        0.9895298       -5.986236        0.1257858        75.54966
                       0.9895297       -5.986236       0.07082667        79.08696        0.1257534       -102.7076
                        0.125786        75.54928        0.1257536       -102.7079        0.9840556        162.9263
0.23                  0.07229842          75.669        0.9890705       -6.115538        0.1284998        75.23223
                       0.9890704       -6.115538       0.07235658        78.84837          0.12847       -102.9861
                          0.1285        75.23184        0.1284701       -102.9864         0.983354          162.55
0.235                 0.07381816         75.3632         0.988602       -6.244587        0.1312086        74.91571
                       0.9886019       -6.244586       0.07388192        78.60848        0.1311788       -103.2658
                       0.1312088        74.91533        0.1311789        -103.266        0.9826332        162.1742
0.24                  0.07533747         75.0575         0.988125       -6.373401        0.1339137        74.59966
                       0.9881249         -6.3734       0.07540185        78.36956        0.1338784       -103.5445
                       0.1339138        74.59927        0.1338785       -103.5447        0.9819002         161.799
0.245                 0.07685436        74.75004         0.987639       -6.501988        0.1366144        74.28336
                       0.9876389       -6.501987       0.07691873        78.13287        0.1365727       -103.8212
                       0.1366145        74.28296        0.1365728       -103.8214        0.9811599        161.4241
0.25                  0.07836572        74.44167        0.9871437       -6.630328        0.1393089        73.96679
                       0.9871436       -6.630327       0.07843495          77.897        0.1392654       -104.0971
                        0.139309         73.9664        0.1392655       -104.0974        0.9804081         161.049
0.255                 0.07987147        74.13481        0.9866394       -6.758392        0.1419964        73.65065
                       0.9866393        -6.75839       0.07994953        77.65986         0.141955       -104.3742
                       0.1419965        73.65024        0.1419551       -104.3744         0.979637        160.6739
0.26                   0.0813746        73.83012        0.9861264       -6.886179        0.1446782        73.33539
                       0.9861262       -6.886176       0.08145944        77.42153        0.1446365       -104.6523
                       0.1446782          73.335        0.1446366       -104.6526        0.9788468        160.2993
0.265                 0.08287706        73.52575        0.9856052       -7.013706        0.1473556        73.02069
                        0.985605       -7.013703       0.08296358        77.18401        0.1473084       -104.9296
                       0.1473556        73.02031        0.1473084       -104.9299        0.9780447        159.9252
0.27                  0.08437705        73.21988        0.9850751       -7.140989        0.1500284        72.70586
                        0.985075       -7.140985       0.08446427        76.94857        0.1499741       -105.2051
                       0.1500283        72.70546        0.1499741       -105.2053        0.9772355        159.5515
0.275                  0.0858714        72.91307        0.9845362       -7.268005        0.1526947        72.39078
                       0.9845361          -7.268       0.08596397        76.71404        0.1526378       -105.4797
                       0.1526946         72.3904        0.1526378       -105.4799        0.9764155        159.1777
0.28                  0.08735973        72.60754        0.9839884       -7.394723        0.1553535        72.07606
                       0.9839883       -7.394718       0.08746193        76.47846        0.1552981       -105.7552
                       0.1553534        72.07566        0.1552981       -105.7554        0.9755773        158.8039
0.285                 0.08884491         72.3041        0.9834324       -7.521138        0.1580059        71.76221
                       0.9834323       -7.521132       0.08895509        76.24176        0.1579501       -106.0317
                       0.1580057        71.76183        0.1579501       -106.0319        0.9747201        158.4305
0.29                  0.09032914        72.00117        0.9828685       -7.647273        0.1606535        71.44898
                       0.9828684       -7.647268       0.09044219        76.00575        0.1605918       -106.3075
                       0.1606533         71.4486        0.1605918       -106.3078        0.9738508        158.0578
0.295                  0.0918109        71.69697        0.9822964       -7.773145        0.1632962        71.13571
                       0.9822962       -7.773139       0.09192541        75.77172        0.1632269       -106.5816
                       0.1632959        71.13534        0.1632268       -106.5818         0.972975        157.6854
0.3                   0.09328692        71.39183        0.9817155       -7.898733        0.1659322        70.82221
                       0.9817153       -7.898727       0.09340736        75.53865        0.1658593       -106.8547
                       0.1659318        70.82186        0.1658592       -106.8549        0.9720894        157.3129
0.305                 0.09475653        71.08777        0.9811261       -8.024002        0.1685602        70.50903
                       0.9811259       -8.023994       0.09488746        75.30473        0.1684881       -107.1286
                       0.1685598        70.50868         0.168488       -107.1288        0.9711861        156.9404
0.31                   0.0962225         70.7857        0.9805288       -8.148945        0.1711811         70.1967
                       0.9805287       -8.148936       0.09636264        75.06977        0.1711084       -107.4034
                       0.1711807        70.19635        0.1711083       -107.4036         0.970264        156.5684
0.315                 0.09768723        70.48431        0.9799241       -8.273587        0.1737968        69.88505
                       0.9799239        -8.27358       0.09783151        74.83539        0.1737181       -107.6776
                       0.1737963         69.8847        0.1737179       -107.6778        0.9693301         156.197
0.32                  0.09914948        70.18185        0.9793114       -8.397947        0.1764073        69.57345
                       0.9793113       -8.397939       0.09929611        74.60286        0.1763203       -107.9501
                       0.1764068        69.57311        0.1763201       -107.9503        0.9683901        155.8261
0.325                  0.1006059        69.87847        0.9786902       -8.522008        0.1790109        69.26165
                       0.9786902          -8.522        0.1007591        74.37137        0.1789194       -108.2216
                       0.1790104        69.26132        0.1789192       -108.2219        0.9674411         155.455
0.33                   0.1020557        69.57599        0.9780612        -8.64573        0.1816061        68.95014
                        0.978061       -8.645722        0.1022202        74.13923        0.1815147       -108.4938
                       0.1816056         68.9498        0.1815145        -108.494        0.9664754         155.084
0.335                  0.1035012        69.27542        0.9774243       -8.769106        0.1841937        68.63942
                       0.9774242       -8.769097        0.1036763        73.90607        0.1841014       -108.7668
                       0.1841931        68.63909        0.1841011        -108.767         0.965491        154.7134
0.34                   0.1049453        68.97568        0.9767805       -8.892159        0.1867755        68.32945
                       0.9767805       -8.892149        0.1051258        73.67344        0.1866769       -109.0393
                       0.1867749        68.32911        0.1866766       -109.0395        0.9644948        154.3435
0.345                  0.1063868        68.67506        0.9761292       -9.014916         0.189352        68.01962
                        0.976129       -9.014905        0.1065707        73.44255        0.1892444       -109.3101
                       0.1893513        68.01929        0.1892441       -109.3104         0.963493         153.974
0.35                   0.1078226        68.37354        0.9754699       -9.137357        0.1919213        67.70964
                       0.9754698       -9.137347        0.1080137        73.21275        0.1918083         -109.58
                       0.1919206        67.70931        0.1918079       -109.5802        0.9624829        153.6045
0.355                  0.1092512        68.07273        0.9748027       -9.259442        0.1944819        67.39987
                       0.9748026       -9.259431        0.1094547        72.98244        0.1943682       -109.8503
                       0.1944812        67.39954        0.1943679       -109.8505        0.9614572         153.235
0.36                   0.1106753        67.77378        0.9741285       -9.381158        0.1970344        67.09088
                       0.9741284       -9.381147        0.1108906        72.75122        0.1969194       -110.1214
                       0.1970336        67.09055         0.196919       -110.1216         0.960413        152.8659
0.365                  0.1120976        67.47576        0.9734475       -9.502535        0.1995806        66.78269
                       0.9734474       -9.502524        0.1123198        72.52042        0.1994591       -110.3921
                       0.1995798        66.78238        0.1994587       -110.3923        0.9593571        152.4975
0.37                   0.1135173        67.17705        0.9727595       -9.623598        0.2021212        66.47471
                       0.9727594       -9.623587        0.1137439        72.29128          0.20199       -110.6612
                       0.2021204        66.47439        0.2019896       -110.6615        0.9582961        152.1296
0.375                  0.1149313        66.87745        0.9720638       -9.744334        0.2046546        66.16662
                       0.9720638       -9.744322         0.115166        72.06327         0.204517       -110.9293
                       0.2046538        66.16629        0.2045165       -110.9295        0.9572277        151.7617
0.38                    0.116338        66.57845        0.9713607       -9.864697         0.207179        65.85871
                       0.9713606       -9.864686        0.1165858        71.83489        0.2070398       -111.1977
                        0.207178        65.85838        0.2070393       -111.1979        0.9561444        151.3938
0.385                  0.1177395        66.28122        0.9706509       -9.984673        0.2096947        65.55155
                       0.9706508       -9.984659        0.1180007        71.60566        0.2095538       -111.4668
                       0.2096937        65.55123        0.2095533       -111.4671        0.9550434        151.0262
0.39                    0.119139        65.98502        0.9699346       -10.10429        0.2122037        65.24521
                       0.9699346       -10.10428        0.1194085        71.37677         0.212056       -111.7355
                       0.2122026         65.2449        0.2120554       -111.7358        0.9539305        150.6595
0.395                  0.1205359        65.68829        0.9692119       -10.22358        0.2147069        64.93918
                       0.9692118       -10.22357         0.120811        71.14949        0.2145489       -112.0028
                       0.2147058        64.93887        0.2145482       -112.0031        0.9528126        150.2932
0.4                    0.1219272        65.39071        0.9684819       -10.34253        0.2172028        64.63305
                       0.9684819       -10.34252        0.1222111        70.92338        0.2170373        -112.269
                       0.2172016        64.63275        0.2170366       -112.2693        0.9516888        149.9269
0.405                  0.1233109         65.0936        0.9677448       -10.46109        0.2196894        64.32709
                       0.9677448       -10.46108        0.1236091        70.69703        0.2195215       -112.5354
                       0.2196881        64.32679        0.2195207       -112.5357        0.9505506        149.5607
0.41                    0.124689        64.79816        0.9670013       -10.57925        0.2221668        64.02184
                       0.9670013       -10.57923        0.1250019        70.46986        0.2219968       -112.8025
                       0.2221655        64.02154         0.221996       -112.8027         0.949395        149.1948
0.415                  0.1260647        64.50388         0.966252       -10.69703        0.2246371        63.71745
                        0.966252       -10.69702        0.1263876          70.243        0.2244599       -113.0693
                       0.2246357        63.71715        0.2244591       -113.0695        0.9482278        148.8297
0.42                    0.127438         64.2092        0.9654966       -10.81447        0.2271015        63.41343
                       0.9654966       -10.81446        0.1277677        70.01764        0.2269133       -113.3346