! TOUCHSTONE file generated by CST MICROWAVE STUDIO
! Date and time: Wed Feb 12 04:27:46 2025
! Project name: Patch antenna.cst
! Header version: 2024
! Port assignment regex: !\s*Touchstone port\s*([0-9]+)\s*=\s*(CST MWS port|CST DES external port|CST DES block port)\s*(.+)\s* \(\"(.*)\"\)(\s*mode\s*([0-9]+))?.*
! Touchstone port assignment:
! Touchstone port 1 = CST MWS port 1 ("Source")
! Touchstone port 2 = CST MWS port 2 ("Serial")
! Touchstone port 3 = CST MWS port 3 ("Parallel")
# GHz S MA R 50
0                   3.286817e-05              -0                1              -0     6.524441e-05              -0
                       0.9999579              -0     3.925036e-05             180     6.335337e-05             180
                    7.958116e-05              -0     8.311722e-05              -0        0.9998688             180
0.005                0.001671626        88.61513        0.9999926      -0.1372183      0.002869138        88.47176
                       0.9999542      -0.1358533      0.001693631        91.01662      0.002869848       -91.45724
                     0.002871202        88.15551      0.002920483       -88.74019        0.9998709        179.6127
0.01                 0.003343611        88.91783        0.9999707      -0.2743691      0.005741162        88.88995
                       0.9999432      -0.2717695      0.003385365        90.04463       0.00574252       -91.02496
                      0.00574284        88.69012      0.005836673       -89.92254        0.9998754        179.2249
0.015                0.005017302        88.84028        0.9999349      -0.4113908      0.008620757        88.85772
                       0.9999242      -0.4078049       0.00507493        89.52089      0.008622521        -91.0299
                     0.008618819        88.68879      0.008748439       -90.55452        0.9998775        178.8363
0.02                 0.006693208        88.66208        0.9998857      -0.5482332       0.01150984        88.69504
                       0.9998965      -0.5440035       0.00676131        89.11603       0.01151171       -91.16144
                      0.01150035        88.54563       0.01165362       -91.04064        0.9998705        178.4466
0.025                0.008371677          88.438        0.9998244      -0.6848617       0.01440888        88.46366
                       0.9998587      -0.6803922      0.008443859        88.76561       0.01441053       -91.35968
                      0.01438832        88.33788       0.01455087       -91.46003        0.9998459        178.0557
0.03                   0.0100528        88.18576        0.9997517      -0.8212599       0.01731671        88.18451
                         0.99981      -0.8169776       0.01012229        88.44883       0.01731786       -91.60427
                      0.01728301        88.09053       0.01743959       -91.83823         0.999796        177.6638
0.035                 0.01173637         87.9129         0.999669      -0.9574309       0.02023064         87.8687
                        0.999749      -0.9537451       0.01179666        88.15682       0.02023108       -91.88444
                      0.02018402        87.81428       0.02031994       -92.18609        0.9997137        177.2711
0.04                  0.01342193        87.62359        0.9995771       -1.093396       0.02314691        87.52495
                       0.9996747       -1.090659       0.01346738        87.88482       0.02314652       -92.19173
                       0.0230903        87.51492       0.02319279       -92.50954        0.9995951        176.8781
0.045                 0.01510878        87.32069        0.9994768       -1.229193       0.02606123        87.16156
                       0.9995861       -1.227666       0.01513516        87.62937       0.02606002       -92.51809
                      0.02600024         87.1965       0.02605966       -92.81268        0.9994391        176.4852
0.05                  0.01679602        87.00667        0.9993688       -1.364871       0.02896946        86.78682
                       0.9994827       -1.364701       0.01680094         87.3875       0.02896758       -92.85549
                       0.0289118        86.86249       0.02892253       -93.09918        0.9992477        176.0929
0.055                 0.01848268        86.68396        0.9992531       -1.500484       0.03186826         86.4086
                       0.9993642       -1.501687       0.01846576        87.15624       0.03186591       -93.19627
                      0.03182268        86.51624       0.03178363       -93.37263        0.9990264        175.7016
0.06                  0.02016773        86.35494        0.9991297       -1.636088       0.03475556        86.03384
                       0.9992306        -1.63855        0.0201307        86.93264       0.03475302       -93.53371
                      0.03473051        86.16108       0.03464527       -93.63663        0.9987823        175.3114
0.065                 0.02185023        86.02201         0.998998       -1.771733       0.03763091        85.66811
                       0.9990827        -1.77522       0.02179674        86.71371       0.03762844        -93.8624
                      0.03763309        85.80033       0.03750955       -93.89484        0.9985237        174.9226
0.07                  0.02352939        85.68744        0.9988574       -1.907458       0.04049548        85.31506
                       0.9989212       -1.911636       0.02346467        86.49661       0.04049332       -94.17877
                      0.04052855        85.43712       0.04037816       -94.15075        0.9982588        174.5349
0.075                  0.0252046        85.35336        0.9987068       -2.043286       0.04335191        84.97636
                        0.998747       -2.047757       0.02513499        86.27869        0.0433502       -94.48122
                       0.0434155        85.07446       0.04325222       -94.40759        0.9979935         174.148
0.08                  0.02687554         85.0216        0.9985453       -2.179222       0.04620384        84.65157
                       0.9985617       -2.183558       0.02680788        86.05769       0.04620261       -94.77017
                      0.04629319        84.71486       0.04613215       -94.66813        0.9977319        173.7615
0.085                 0.02854214        84.69363        0.9983718       -2.315252       0.04905535        84.33848
                       0.9983659        -2.31904       0.02848315        85.83188       0.04905449       -95.04773
                      0.04916151        84.36041       0.04901762        -94.9345        0.9974746         173.375
0.09                  0.03020465        84.37052        0.9981854       -2.451343       0.05191019        84.03355
                       0.9981614       -2.454219       0.03016026        85.60005        0.0519095       -95.31736
                      0.05202103        84.01261       0.05190753       -95.20823        0.9972188        172.9879
0.095                 0.03186352        84.05289        0.9979853       -2.587446        0.0547713         83.7325
                       0.9979489       -2.589136       0.03183837        85.36161       0.05477046       -95.58323
                      0.05487292        83.67231        0.0548002       -95.49007        0.9969589           172.6
0.1                   0.03351945        83.74086        0.9977711         -2.7235       0.05764016        83.43089
                       0.9977291       -2.723843       0.03351644        85.11654       0.05763883       -95.84958
                      0.05771884        83.33979       0.05769341       -95.78005        0.9966874         172.211
0.105                 0.03517323        83.43414        0.9975424        -2.85944       0.06051664        83.12489
                       0.9975023       -2.858401       0.03519323        84.86536       0.06051448       -96.12021
                      0.06056078        83.01462       0.06058469       -96.07758         0.996396         171.821
0.11                  0.03682573        83.13206        0.9972997       -2.995196       0.06339896        82.81163
                       0.9972688       -2.992873       0.03686754        84.60907       0.06339567       -96.39786
                      0.06340084        82.69595       0.06347144       -96.38141        0.9960771        171.4301
0.115                 0.03847776        82.83362        0.9970433       -3.130706       0.06628394        82.48957
                       0.9970279       -3.127322        0.0385382        84.34901       0.06627933       -96.68407
                      0.06624106        82.38242        0.0663513          -96.69        0.9957248        171.0387
0.12                  0.04013001        82.53768        0.9967739       -3.265919       0.06916755        82.15861
                       0.9967789       -3.261796       0.04020426        84.08671       0.06916151       -96.97887
                      0.06908319        82.07242       0.06922223       -97.00143        0.9953357        170.6472
0.125                 0.04178297        82.24292        0.9964927       -3.400798       0.07204546        81.81999
                        0.996521        -3.39633       0.04186502        83.82383       0.07203805       -97.28114
                       0.0719285        81.76416       0.07208276       -97.31373        0.9949102        170.2561
0.13                  0.04343691        81.94809        0.9962007       -3.535326       0.07491375        81.47602
                       0.9962531       -3.530941       0.04352012        83.56188       0.07490511       -97.58859
                      0.07477775        81.45589        0.0749321       -97.62501        0.9944515        169.8658
0.135                 0.04509178        81.65202        0.9958989       -3.669505       0.07776958         81.1296
                       0.9959738       -3.665621       0.04516952        83.30231       0.07775991       -97.89842
                      0.07763097        81.14595       0.07777022       -97.93354        0.9939656        169.4766
0.14                  0.04674727        81.35378        0.9955886       -3.803354       0.08061148        80.78387
                       0.9956823       -3.800344       0.04681358        83.04616       0.08060103       -98.20761
                      0.08048749        80.83303       0.08059781       -98.23799        0.9934604        169.0889
0.145                 0.04840281        81.05266        0.9952705       -3.936911       0.08343968        80.44162
                       0.9953774       -3.935062       0.04845293         82.7942       0.08342867       -98.51341
                      0.08334609        80.51611       0.08341622       -98.53739        0.9929444        168.7025
0.15                   0.0500576        80.74828        0.9949451       -4.070223       0.08625602        80.10501
                       0.9950585       -4.069715       0.05008848        82.54678       0.08624462       -98.81375
                      0.08620495        80.19461       0.08622733        -98.8313        0.9924249        168.3172
0.155                  0.0517107         80.4406        0.9946128       -4.203348       0.08906364        79.77522
                       0.9947251        -4.20423       0.05172126        82.30384       0.08905189       -99.10748
                      0.08906191        79.86842       0.08903335       -99.11976        0.9919078        167.9327
0.16                  0.05336111        80.12985        0.9942734       -4.336341       0.09186645        79.45238
                       0.9943774       -4.338532       0.05335237        82.06498       0.09185429       -99.39442
                      0.09191462        79.53783       0.09183661       -99.40324        0.9913959        167.5486
0.165                 0.05500783        79.81652        0.9939268       -4.469255       0.09466851        79.13556
                       0.9940159       -4.472545       0.05498283        81.82945       0.09465574       -99.67553
                      0.09476078        79.20348        0.0946393       -99.68265        0.9908884        167.1643
0.17                  0.05664998        79.50136        0.9935719       -4.602131       0.09747333        78.82304
                       0.9936411       -4.606207       0.05661349        81.59624       0.09745965       -99.95245
                      0.09759826         78.8664        0.0974433       -99.95913        0.9903817        166.7795
0.175                 0.05828686        79.18521        0.9932081       -4.734993        0.1002833        78.51254
                        0.993254       -4.739467       0.05824496        81.36428        0.1002684       -100.2274
                       0.1004254        78.52771        0.1002499       -100.2341        0.9898694        166.3938
0.18                    0.059918        78.86898        0.9928342       -4.867851        0.1030994        78.20166
                       0.9928559       -4.872296       0.05987751        81.13241        0.1030827       -100.5026
                        0.103241        78.18868        0.1030598       -100.5088        0.9893437        166.0072
0.185                  0.0615432        78.55359        0.9924493       -5.000692        0.1059206        77.88821
                       0.9924481       -5.004683       0.06151106        80.89957        0.1059019       -100.7804
                       0.1060447        77.85057        0.1058729       -100.7847        0.9887963        165.6195
0.19                  0.06316255         78.2398        0.9920525       -5.133486        0.1087447        77.57052
                       0.9920319       -5.136641       0.06314516        80.66486        0.1087237       -101.0622
                       0.1088365        77.51449        0.1086883       -101.0629          0.98822        165.2312
0.195                 0.06477641        77.92829        0.9916428       -5.266185         0.111568        77.24775
                       0.9916083       -5.268201       0.06477908         80.4276        0.1115446        -101.349
                       0.1116175        77.18135        0.1115046       -101.3442        0.9876097        164.8426
0.2                   0.06638539        77.61945          0.99122       -5.398729        0.1143864        76.91988
                       0.9911782       -5.399413       0.06641179        80.18744        0.1143603       -101.6407
                       0.1143889         76.8518        0.1143197       -101.6291        0.9869634        164.4541
0.205                 0.06799024        77.31351        0.9907839       -5.531052        0.1171955        76.58771
                        0.990742       -5.530338       0.06804213        79.94429        0.1171669       -101.9366
                       0.1171526        76.52613        0.1171312       -101.9177        0.9862823        164.0663
0.21                  0.06959183        77.01041        0.9903344       -5.663086        0.1199918        76.25273
                          0.9903       -5.661039       0.06966885        79.69837        0.1199609       -102.2352
                       0.1199107        76.20435        0.1199364       -102.2097        0.9855708        163.6796
0.215                 0.07119102        76.70986        0.9898722       -5.794768         0.122773        75.91682
                        0.989852       -5.791582       0.07129079        79.45016          0.12274       -102.5347
                       0.1226654        75.88609         0.122733       -102.5047        0.9848359        163.2942
0.22                  0.07278859        76.41144        0.9893982       -5.926043        0.1255383        75.58198
                       0.9893975       -5.922023       0.07290695         79.2004        0.1255034       -102.8332
                       0.1254186        75.57078        0.1255188       -102.8018        0.9840856        162.9102
0.225                 0.07438517        76.11452        0.9889133       -6.056875        0.1282887        75.24995
                       0.9889354       -6.052405       0.07451651        78.94991        0.1282519       -103.1289
                        0.128172        75.25757         0.128292       -103.0999        0.9833285        162.5277
0.23                  0.07598117        75.81842        0.9884185       -6.187247        0.1310265        74.92208
                       0.9884648       -6.182752       0.07611905        78.69958        0.1309881       -103.4207
                       0.1309265        74.94554        0.1310519        -103.398        0.9825716        162.1463
0.235                  0.0775767        75.52241        0.9879151       -6.317157        0.1337554        74.59901
                       0.9879846       -6.313069        0.0777145        78.45028        0.1337153       -103.7077
                       0.1336828        74.63369         0.133798        -103.695        0.9818195        161.7657
0.24                  0.07917162        75.22586        0.9874043       -6.446626        0.1364794        74.28069
                       0.9874936       -6.443335       0.07930308        78.20278        0.1364374       -103.9902
                       0.1364406         74.3211        0.1365309       -103.9899        0.9810742        161.3853
0.245                 0.08076549        74.92818        0.9868867       -6.575692        0.1392026        73.96634
                       0.9869908       -6.573514       0.08088538         77.9577        0.1391584       -104.2687
                        0.139199        74.00697        0.1392517        -104.282        0.9803339        161.0047
0.25                  0.08235764        74.62898        0.9863632         -6.7044         0.141928        73.65472
                       0.9864754       -6.703547       0.08246229         77.7154        0.1418812       -104.5446
                       0.1419565        73.69066        0.1419624       -104.5709        0.9795938        160.6235
0.255                 0.08394721        74.32803         0.985834       -6.832813        0.1446575        73.34415
                        0.985947       -6.833367       0.08403483        77.47606        0.1446077       -104.8194
                       0.1447113        73.37183         0.144665       -104.8562        0.9788468        160.2415
0.26                  0.08553322        74.02527        0.9852989       -6.960987        0.1473914        73.03298
                       0.9854054       -6.962896       0.08560411        77.23956        0.1473382       -105.0948
                       0.1474609        73.05038        0.1473618        -105.138         0.978085        159.8585
0.265                 0.08711464        73.72088         0.984758       -7.088977         0.150128        72.71972
                       0.9848509       -7.092061        0.0871712        77.00557        0.1500711       -105.3722
                       0.1502031        72.72647        0.1500553       -105.4168           0.9773        159.4747
0.27                  0.08869056        73.41517        0.9842103       -7.216826        0.1528646        72.40338
                       0.9842842       -7.220793       0.08873703        76.77358        0.1528036       -105.6526
                       0.1529356        72.40053        0.1527474       -105.6932        0.9764855        159.0903
0.275                 0.09026015        73.10863         0.983655       -7.344565        0.1555971        72.08341
                       0.9837063       -7.349034       0.09030229        76.54293         0.155532       -105.9365
                       0.1556564        72.07315        0.1554396       -105.9679        0.9756371        158.7059
0.28                  0.09182285        72.80178        0.9830911       -7.472204        0.1583212        71.76003
                       0.9831182       -7.476748       0.09186737        76.31289        0.1582519       -106.2237
                       0.1583642        71.74508        0.1581329       -106.2418        0.9747542        158.3219
0.285                 0.09337829        72.49523        0.9825177       -7.599732         0.161033        71.43395
                       0.9825213       -7.603917       0.09343229        76.08274        0.1609595       -106.5135
                        0.161058        71.41715        0.1608274       -106.5159        0.9738389        157.9387
0.29                  0.09492647        72.18955        0.9819337       -7.727121        0.1637292        71.10638
                       0.9819169       -7.730546       0.09499673        75.85183        0.1636517       -106.8047
                       0.1637376        71.09015        0.1635225       -106.7909        0.9728968        157.5569
0.295                 0.09646761        71.88526        0.9813386       -7.854327        0.1664081        70.77877
                       0.9813062       -7.856661          0.09656         75.6196        0.1663269        -107.096
                       0.1664035        70.76481         0.166217       -107.0674        0.9719355        157.1765
0.3                   0.09800221        71.58277        0.9807317       -7.981291        0.1690697        70.45258
                         0.98069       -7.982309       0.09812116        75.38571        0.1689849       -107.3859
                        0.169057        70.44172        0.1689089       -107.3461        0.9709634        156.7978
0.305                 0.09953098        71.28232        0.9801127       -8.107946        0.1717157        70.12905
                       0.9800695       -8.107545       0.09967908        75.14998        0.1716274       -107.6733
                       0.1716995        70.12128         0.171596        -107.627        0.9699889        156.4204
0.31                   0.1010548        70.98404        0.9794819       -8.234222         0.174349        69.80904
                       0.9794445       -8.232441        0.1012325        74.91248        0.1742572       -107.9572
                       0.1743333         69.8037        0.1742755       -107.9103        0.9690179        156.0442
0.315                  0.1025745        70.68787        0.9788399       -8.360056        0.1769736         69.4929
                       0.9788152       -8.357061        0.1027803        74.67346        0.1768781       -108.2373
                       0.1769603        69.48893        0.1769452       -108.1956        0.9680548        155.6686
0.32                    0.104091        70.39355        0.9781874       -8.485395        0.1795936         69.1804
                        0.978181       -8.481468        0.1043214        74.43331        0.1794942       -108.5139
                       0.1795828        69.17668        0.1796026       -108.4823        0.9670998        155.2932
0.325                  0.1056051        70.10078        0.9775255       -8.610198        0.1822128        68.87083
                       0.9775414       -8.605715        0.1058549        74.19257        0.1821091       -108.7876
                       0.1822026        68.86657        0.1822459         -108.77        0.9661503        154.9174
0.33                   0.1071172        69.80911         0.976855       -8.734448        0.1848339        68.56306
                       0.9768954       -8.729836        0.1073803        73.95189        0.1847254       -109.0596
                       0.1848214        68.55792         0.184874       -109.0578        0.9652005         154.541
0.335                  0.1086276        69.51803        0.9761776       -8.858142         0.187458        68.25582
                       0.9762416       -8.853841        0.1088975        73.71188        0.1873444        -109.331
                       0.1874398        68.25015        0.1874864        -109.345        0.9642429        154.1638
0.34                   0.1101365        69.22705        0.9754941       -8.981304        0.1900849        67.94782
                       0.9755791       -8.977724        0.1104066        73.47316        0.1899657       -109.6031
                       0.1900582         67.9425        0.1900835       -109.6309        0.9632691        153.7856
0.345                  0.1116435        68.93572        0.9748056       -9.103965        0.1927122        67.63798
                       0.9749068       -9.101453        0.1119081        73.23621        0.1925871       -109.8769
                        0.192676        67.63433        0.1926662       -109.9147        0.9622713        153.4068
0.35                    0.113148        68.64363        0.9741128       -9.226183        0.1953367        67.32562
                       0.9742237       -9.224979         0.113403        73.00138        0.1952054       -110.1532
                       0.1952922         67.3251        0.1952362        -110.196        0.9612437        153.0276
0.355                  0.1146493        68.35053        0.9734158       -9.348014         0.197954        67.01054
                       0.9735293       -9.348235        0.1148921        72.76887        0.1978164       -110.4321
                       0.1979051        67.01438        0.1977958       -110.4747        0.9601832        152.6485
0.36                   0.1161465        68.05632        0.9727149        -9.46952          0.20056        66.69304
                       0.9728234       -9.471147        0.1163767        72.53868        0.2004161       -110.7134
                       0.2005125        66.70198        0.2003471       -110.7506        0.9590899        152.2701
0.365                  0.1176386        67.76097        0.9720097       -9.590762        0.2031508        66.37385
                       0.9721062       -9.593639        0.1178579        72.31065        0.2030007       -110.9963
                       0.2031122        66.38784        0.2028928       -111.0239        0.9579678        151.8928
0.37                   0.1191245        67.46467        0.9712995       -9.711781        0.2057239        66.05399
                       0.9713781       -9.715636        0.1193367        72.08441        0.2055677       -111.2799
                       0.2057018        66.07215        0.2054348       -111.2951        0.9568229         151.517
0.375                  0.1206035        67.16768        0.9705835       -9.832616        0.2082782        65.73468
                         0.97064       -9.837081        0.1208138        71.85956        0.2081161       -111.5629
                       0.2082791        65.75524        0.2079751       -111.5645        0.9556634        151.1428
0.38                   0.1220747        66.87037        0.9698608       -9.953278        0.2108144        65.41705
                        0.969893       -9.957924        0.1222897        71.63554        0.2106466       -111.8443
                       0.2108424        65.43759        0.2105147       -111.8329        0.9544979        150.7703
0.385                  0.1235379        66.57318        0.9691302       -10.07376        0.2133348        65.10205
                       0.9691384       -10.07814        0.1237647        71.41181        0.2131613       -112.1231
                       0.2133905        65.11979         0.213054        -112.101        0.9533345        150.3992
0.39                   0.1249926        66.27656         0.968391       -10.19404         0.215843         64.7902
                       0.9683777       -10.19773        0.1252384        71.18782        0.2156636       -112.3989
                       0.2159228        64.80244        0.2155928       -112.3694        0.9521782         150.029
0.395                  0.1264392        65.98095        0.9676421       -10.31407        0.2183431        64.48166
                        0.967612       -10.31672        0.1267103        70.96316        0.2181576       -112.6714
                       0.2184394        64.48617        0.2181299       -112.6386        0.9510324        149.6595
0.4                     0.127878        65.68668        0.9668833       -10.43378        0.2208392        64.17606
                       0.9668425       -10.43514        0.1281795        70.73745        0.2206473       -112.9411
                       0.2209412        64.17149        0.2206636       -112.9091        0.9498964          149.29
0.405                  0.1293096        65.39407        0.9661142       -10.55313        0.2233348        63.87269
                       0.9660698       -10.55305        0.1296449        70.51053        0.2231361       -113.2085
                       0.2234295        63.85885        0.2231917       -113.1812        0.9487661          148.92
0.41                   0.1307348        65.10325         0.965335       -10.67203        0.2258321        63.57056
                       0.9652947       -10.67052        0.1311053        70.28237        0.2256261       -113.4748
                       0.2259064        63.54847        0.2257116        -113.455        0.9476348        148.5493
0.415                  0.1321546         64.8143        0.9645461       -10.79042        0.2283316        63.26857
                       0.9645172       -10.78762        0.1325595        70.05309        0.2281178       -113.7408
                       0.2283738        63.24049        0.2282209       -113.7302        0.9464948        148.1777
0.42                   0.1335699        64.52707        0.9637485       -10.90825        0.2308322        62.96569
                       0.9637369       -10.90442        0.1340063          69.823        0.2306102       -114.0077